# Force       
# CofR        : (0.000000e+00 0.000000e+00 1.000000e+00)
#
# Time        	total_x total_y total_z	pressure_x pressure_y pressure_z	viscous_x viscous_y viscous_z
0              0.000000e+00 0.000000e+00 0.000000e+00 0.000000e+00 0.000000e+00 0.000000e+00 0.000000e+00 0.000000e+00 0.000000e+00
2              1.611571e+00 2.163201e-03 -1.456100e-01 1.223183e+00 2.756232e-03 -1.282585e-01 3.883883e-01 -5.930311e-04 -1.735155e-02
4              1.455173e+00 3.995730e-03 -4.494297e-01 1.114633e+00 4.522951e-03 -4.198583e-01 3.405400e-01 -5.272207e-04 -2.957137e-02
6              1.432662e+00 4.859181e-03 -6.513264e-01 1.100071e+00 4.340858e-03 -5.988397e-01 3.325905e-01 5.183225e-04 -5.248670e-02
8              1.438638e+00 4.400219e-03 -7.077626e-01 1.103638e+00 3.160280e-03 -6.420598e-01 3.350001e-01 1.239939e-03 -6.570286e-02
10             1.382392e+00 1.967473e-03 -6.989890e-01 1.058935e+00 9.338402e-04 -6.303873e-01 3.234574e-01 1.033633e-03 -6.860175e-02
12             1.333114e+00 -1.086262e-03 -6.668391e-01 1.024674e+00 -1.045441e-03 -6.041783e-01 3.084392e-01 -4.082197e-05 -6.266082e-02
14             1.320034e+00 -2.466631e-03 -6.606663e-01 1.017004e+00 -1.244144e-03 -6.020961e-01 3.030304e-01 -1.222487e-03 -5.857017e-02
16             1.307510e+00 -1.103281e-03 -6.803494e-01 1.005806e+00 1.836798e-04 -6.219498e-01 3.017039e-01 -1.286961e-03 -5.839962e-02
18             1.298563e+00 1.290727e-03 -6.995925e-01 9.976896e-01 1.297802e-03 -6.401713e-01 3.008733e-01 -7.075128e-06 -5.942122e-02
20             1.286055e+00 2.305995e-03 -7.065618e-01 9.871472e-01 9.053796e-04 -6.469559e-01 2.989082e-01 1.400616e-03 -5.960589e-02
22             1.272018e+00 1.067832e-03 -7.052909e-01 9.763330e-01 -3.217282e-04 -6.458331e-01 2.956854e-01 1.389560e-03 -5.945776e-02
24             1.264269e+00 -9.819284e-04 -7.010501e-01 9.711570e-01 -8.170100e-04 -6.412035e-01 2.931123e-01 -1.649184e-04 -5.984658e-02
26             1.261046e+00 -2.453500e-03 -6.994208e-01 9.690267e-01 -8.688080e-04 -6.388948e-01 2.920192e-01 -1.584692e-03 -6.052604e-02
28             1.256476e+00 -1.048272e-03 -6.982785e-01 9.654185e-01 2.973727e-04 -6.377329e-01 2.910576e-01 -1.345645e-03 -6.054564e-02
30             1.250068e+00 2.338976e-03 -6.978837e-01 9.603157e-01 2.135596e-03 -6.380805e-01 2.897523e-01 2.033801e-04 -5.980319e-02
32             1.245073e+00 4.401673e-03 -6.990363e-01 9.564849e-01 2.705199e-03 -6.400761e-01 2.885882e-01 1.696473e-03 -5.896020e-02
34             1.243744e+00 3.049606e-03 -6.992799e-01 9.556211e-01 1.232370e-03 -6.402710e-01 2.881227e-01 1.817235e-03 -5.900884e-02
36             1.243536e+00 -1.577339e-03 -7.014580e-01 9.553547e-01 -2.070567e-03 -6.416504e-01 2.881818e-01 4.932272e-04 -5.980755e-02
38             1.241178e+00 -4.794175e-03 -7.025581e-01 9.532329e-01 -3.324907e-03 -6.421651e-01 2.879451e-01 -1.469268e-03 -6.039304e-02
40             1.236365e+00 -3.064020e-03 -7.042803e-01 9.492766e-01 -6.799968e-04 -6.439658e-01 2.870886e-01 -2.384023e-03 -6.031446e-02
42             1.232639e+00 1.809077e-03 -7.051415e-01 9.464918e-01 2.820670e-03 -6.451901e-01 2.861473e-01 -1.011593e-03 -5.995148e-02
44             1.232618e+00 4.097805e-03 -7.046259e-01 9.466700e-01 2.160057e-03 -6.444322e-01 2.859475e-01 1.937748e-03 -6.019375e-02
46             1.234192e+00 4.011322e-04 -7.047787e-01 9.479863e-01 -2.935011e-03 -6.440228e-01 2.862059e-01 3.336143e-03 -6.075596e-02
48             1.233603e+00 -6.139795e-03 -7.035251e-01 9.474867e-01 -6.930073e-03 -6.427841e-01 2.861166e-01 7.902787e-04 -6.074100e-02
50             1.230469e+00 -8.650447e-03 -7.052897e-01 9.447916e-01 -4.873844e-03 -6.450725e-01 2.856772e-01 -3.776602e-03 -6.021725e-02
52             1.228649e+00 -2.895413e-03 -7.051469e-01 9.435530e-01 2.410085e-03 -6.455700e-01 2.850961e-01 -5.305498e-03 -5.957692e-02
54             1.229209e+00 6.043024e-03 -7.035643e-01 9.441779e-01 7.036620e-03 -6.440125e-01 2.850313e-01 -9.935950e-04 -5.955178e-02
56             1.232167e+00 9.356467e-03 -7.025924e-01 9.466249e-01 3.831327e-03 -6.425694e-01 2.855421e-01 5.525140e-03 -6.002298e-02
58             1.236125e+00 4.624722e-03 -7.009627e-01 9.499164e-01 -1.861847e-03 -6.404564e-01 2.862087e-01 6.486569e-03 -6.050628e-02
60             1.238329e+00 -4.924558e-03 -7.045964e-01 9.512904e-01 -5.188602e-03 -6.434826e-01 2.870382e-01 2.640439e-04 -6.111387e-02
62             1.240067e+00 -8.100137e-03 -7.086466e-01 9.522398e-01 -1.126088e-03 -6.469164e-01 2.878272e-01 -6.974049e-03 -6.173017e-02
64             1.241985e+00 1.617791e-03 -7.115461e-01 9.536521e-01 8.613669e-03 -6.489480e-01 2.883333e-01 -6.995878e-03 -6.259815e-02
66             1.243296e+00 1.935879e-02 -7.161321e-01 9.543789e-01 1.814778e-02 -6.520183e-01 2.889167e-01 1.211016e-03 -6.411381e-02
68             1.245439e+00 2.598552e-02 -7.208713e-01 9.557694e-01 1.534350e-02 -6.549666e-01 2.896697e-01 1.064202e-02 -6.590471e-02
70             1.249036e+00 5.352880e-03 -7.244089e-01 9.588443e-01 -6.785972e-03 -6.573279e-01 2.901915e-01 1.213885e-02 -6.708093e-02
72             1.254124e+00 -2.956419e-02 -7.270972e-01 9.628923e-01 -3.201691e-02 -6.595528e-01 2.912316e-01 2.452727e-03 -6.754442e-02
74             1.254915e+00 -4.187485e-02 -7.277146e-01 9.633453e-01 -2.719775e-02 -6.597018e-01 2.915698e-01 -1.467710e-02 -6.801273e-02
76             1.260425e+00 -9.850222e-03 -7.191877e-01 9.686203e-01 1.259658e-02 -6.531047e-01 2.918047e-01 -2.244680e-02 -6.608299e-02
78             1.265223e+00 4.074307e-02 -7.110305e-01 9.727088e-01 4.822046e-02 -6.476193e-01 2.925138e-01 -7.477386e-03 -6.341118e-02
80             1.267063e+00 5.840392e-02 -7.098563e-01 9.744609e-01 3.490773e-02 -6.470656e-01 2.926024e-01 2.349620e-02 -6.279073e-02
82             1.285821e+00 2.032724e-02 -6.908733e-01 9.911604e-01 -1.593441e-02 -6.302462e-01 2.946609e-01 3.626165e-02 -6.062715e-02
84             1.304168e+00 -3.889533e-02 -6.804267e-01 1.005560e+00 -4.892946e-02 -6.217400e-01 2.986079e-01 1.003413e-02 -5.868671e-02
86             1.310374e+00 -6.290115e-02 -6.873487e-01 1.010180e+00 -2.851606e-02 -6.281549e-01 3.001938e-01 -3.438509e-02 -5.919388e-02
88             1.351429e+00 -1.668302e-02 -6.688440e-01 1.044958e+00 3.090995e-02 -6.107043e-01 3.064706e-01 -4.759298e-02 -5.813971e-02
90             1.367700e+00 4.831326e-02 -6.640293e-01 1.055343e+00 5.543516e-02 -6.064349e-01 3.123575e-01 -7.121897e-03 -5.759442e-02
92             1.372218e+00 5.959668e-02 -6.785130e-01 1.059996e+00 9.144908e-03 -6.201353e-01 3.122222e-01 5.045177e-02 -5.837766e-02
94             1.438684e+00 5.359396e-03 -6.462024e-01 1.115492e+00 -5.249598e-02 -5.896800e-01 3.231920e-01 5.785538e-02 -5.652244e-02
96             1.426131e+00 -6.614947e-02 -6.514469e-01 1.101502e+00 -6.138224e-02 -5.946008e-01 3.246282e-01 -4.767226e-03 -5.684612e-02
98             1.452986e+00 -5.430651e-02 -6.585628e-01 1.127692e+00 1.654928e-02 -6.005253e-01 3.252936e-01 -7.085578e-02 -5.803754e-02
100            1.511812e+00 -2.263454e-03 -6.077716e-01 1.173519e+00 5.927236e-02 -5.522573e-01 3.382924e-01 -6.153581e-02 -5.551432e-02
102            1.472793e+00 7.742471e-02 -6.379084e-01 1.139679e+00 5.136530e-02 -5.818558e-01 3.331139e-01 2.605941e-02 -5.605264e-02
104            1.544794e+00 5.514015e-02 -6.283906e-01 1.204509e+00 -3.520554e-02 -5.718191e-01 3.402851e-01 9.034569e-02 -5.657146e-02
106            1.542073e+00 1.070413e-03 -5.878200e-01 1.195620e+00 -5.100000e-02 -5.332747e-01 3.464528e-01 5.207042e-02 -5.454535e-02
108            1.504518e+00 -7.414269e-02 -6.373080e-01 1.166069e+00 -2.345367e-02 -5.814486e-01 3.384499e-01 -5.068901e-02 -5.585939e-02
110            1.592865e+00 -6.140977e-02 -5.956696e-01 1.242297e+00 3.542987e-02 -5.395277e-01 3.505678e-01 -9.683964e-02 -5.614192e-02
112            1.535845e+00 2.059617e-02 -5.853266e-01 1.189501e+00 5.159837e-02 -5.311875e-01 3.463442e-01 -3.100220e-02 -5.413907e-02
114            1.525985e+00 7.566380e-02 -6.368176e-01 1.184330e+00 4.732183e-03 -5.796207e-01 3.416547e-01 7.093162e-02 -5.719683e-02
116            1.592746e+00 6.258928e-02 -5.807951e-01 1.239305e+00 -2.912304e-02 -5.245534e-01 3.534411e-01 9.171232e-02 -5.624170e-02
118            1.523480e+00 -4.416558e-02 -6.015031e-01 1.179776e+00 -5.112757e-02 -5.472128e-01 3.437039e-01 6.961985e-03 -5.429026e-02
120            1.546438e+00 -7.227619e-02 -6.315308e-01 1.202663e+00 1.108958e-02 -5.736536e-01 3.437750e-01 -8.336577e-02 -5.787717e-02
122            1.574316e+00 -4.671396e-02 -5.757960e-01 1.222163e+00 3.274637e-02 -5.199371e-01 3.521530e-01 -7.946033e-02 -5.585893e-02
124            1.512834e+00 6.452572e-02 -6.165874e-01 1.171342e+00 4.771537e-02 -5.616106e-01 3.414924e-01 1.681035e-02 -5.497683e-02
126            1.568252e+00 6.880545e-02 -6.188623e-01 1.221943e+00 -2.334045e-02 -5.610778e-01 3.463090e-01 9.214589e-02 -5.778454e-02
128            1.555818e+00 2.348358e-02 -5.786037e-01 1.206025e+00 -3.934597e-02 -5.233182e-01 3.497927e-01 6.282955e-02 -5.528550e-02
130            1.508630e+00 -7.421141e-02 -6.322230e-01 1.168366e+00 -3.476024e-02 -5.762390e-01 3.402638e-01 -3.945117e-02 -5.598406e-02
132            1.584421e+00 -6.678468e-02 -6.040930e-01 1.235329e+00 2.916612e-02 -5.468227e-01 3.490921e-01 -9.595080e-02 -5.727029e-02
134            1.537698e+00 4.616158e-03 -5.837344e-01 1.190820e+00 4.746517e-02 -5.289711e-01 3.468785e-01 -4.284901e-02 -5.476329e-02
136            1.513259e+00 7.660481e-02 -6.389291e-01 1.173058e+00 1.700493e-02 -5.818310e-01 3.402016e-01 5.959988e-02 -5.709813e-02
138            1.589231e+00 6.442408e-02 -5.901301e-01 1.237710e+00 -2.945899e-02 -5.333020e-01 3.515212e-01 9.388306e-02 -5.682813e-02
140            1.524671e+00 -3.119039e-02 -5.968002e-01 1.180424e+00 -5.150251e-02 -5.422826e-01 3.442475e-01 2.031212e-02 -5.451760e-02
142            1.528167e+00 -7.402258e-02 -6.383637e-01 1.186696e+00 2.043015e-03 -5.805396e-01 3.414710e-01 -7.606560e-02 -5.782404e-02
144            1.580516e+00 -5.384568e-02 -5.804922e-01 1.228438e+00 3.198243e-02 -5.241296e-01 3.520785e-01 -8.582810e-02 -5.636255e-02
146            1.515239e+00 5.475450e-02 -6.094774e-01 1.173176e+00 5.142090e-02 -5.546920e-01 3.420636e-01 3.333595e-03 -5.478542e-02
148            1.553159e+00 6.950219e-02 -6.276961e-01 1.209004e+00 -1.747913e-02 -5.696930e-01 3.441548e-01 8.698132e-02 -5.800309e-02
150            1.565371e+00 3.626533e-02 -5.780143e-01 1.214432e+00 -3.609571e-02 -5.223146e-01 3.509387e-01 7.236105e-02 -5.569977e-02
152            1.509373e+00 -6.974811e-02 -6.253006e-01 1.168684e+00 -4.281143e-02 -5.698333e-01 3.406884e-01 -2.693668e-02 -5.546726e-02
154            1.575538e+00 -6.680495e-02 -6.127308e-01 1.228011e+00 2.760827e-02 -5.551206e-01 3.475276e-01 -9.441322e-02 -5.761019e-02
156            1.547123e+00 -1.103462e-02 -5.795457e-01 1.198619e+00 4.332819e-02 -5.244872e-01 3.485042e-01 -5.436281e-02 -5.505857e-02
158            1.509600e+00 7.612008e-02 -6.349652e-01 1.169533e+00 2.735014e-02 -5.784507e-01 3.400668e-01 4.876994e-02 -5.651444e-02
160            1.587165e+00 6.609499e-02 -5.978560e-01 1.236762e+00 -2.976600e-02 -5.407877e-01 3.504034e-01 9.586099e-02 -5.706832e-02
162            1.531893e+00 -1.607480e-02 -5.897952e-01 1.186137e+00 -4.908993e-02 -5.352090e-01 3.457558e-01 3.301512e-02 -5.458623e-02
164            1.518989e+00 -7.512042e-02 -6.402106e-01 1.178394e+00 -7.565512e-03 -5.827684e-01 3.405956e-01 -6.755491e-02 -5.744219e-02
166            1.586374e+00 -6.066928e-02 -5.849896e-01 1.234347e+00 3.031125e-02 -5.283384e-01 3.520265e-01 -9.098053e-02 -5.665120e-02
168            1.519910e+00 4.306383e-02 -6.012367e-01 1.176749e+00 5.293352e-02 -5.466534e-01 3.431617e-01 -9.869690e-03 -5.458335e-02
170            1.538942e+00 7.217863e-02 -6.343605e-01 1.196103e+00 -8.972757e-03 -5.763344e-01 3.428392e-01 8.115139e-02 -5.802607e-02
172            1.574669e+00 4.734047e-02 -5.789955e-01 1.222845e+00 -3.313348e-02 -5.229406e-01 3.518242e-01 8.047395e-02 -5.605496e-02
174            1.512267e+00 -6.233886e-02 -6.176406e-01 1.170895e+00 -4.829233e-02 -5.626091e-01 3.413727e-01 -1.404653e-02 -5.503146e-02
176            1.563989e+00 -6.816429e-02 -6.214964e-01 1.218438e+00 2.282308e-02 -5.636374e-01 3.455505e-01 -9.098737e-02 -5.785896e-02
178            1.557110e+00 -2.514533e-02 -5.773006e-01 1.207194e+00 3.966255e-02 -5.218961e-01 3.499152e-01 -6.480788e-02 -5.540452e-02
180            1.508198e+00 7.426841e-02 -6.294920e-01 1.167895e+00 3.739282e-02 -5.735664e-01 3.403031e-01 3.687559e-02 -5.592561e-02
182            1.583224e+00 6.665273e-02 -6.058413e-01 1.234434e+00 -2.917490e-02 -5.485648e-01 3.487899e-01 9.582763e-02 -5.727651e-02
184            1.540090e+00 -8.248124e-04 -5.842709e-01 1.192794e+00 -4.595958e-02 -5.294632e-01 3.472963e-01 4.513477e-02 -5.480770e-02
186            1.512437e+00 -7.616172e-02 -6.390403e-01 1.172343e+00 -1.850852e-02 -5.821098e-01 3.400941e-01 -5.765320e-02 -5.693058e-02
188            1.589595e+00 -6.429621e-02 -5.910846e-01 1.238255e+00 3.007754e-02 -5.341831e-01 3.513397e-01 -9.437376e-02 -5.690158e-02
190            1.525621e+00 2.900849e-02 -5.933942e-01 1.181114e+00 5.193884e-02 -5.388711e-01 3.445077e-01 -2.293035e-02 -5.452308e-02
192            1.526027e+00 7.457937e-02 -6.384045e-01 1.184664e+00 2.818768e-05 -5.806068e-01 3.413634e-01 7.455118e-02 -5.779765e-02
194            1.582247e+00 5.585863e-02 -5.819034e-01 1.230053e+00 -3.114057e-02 -5.255016e-01 3.521948e-01 8.699920e-02 -5.640175e-02
196            1.516577e+00 -5.193323e-02 -6.095896e-01 1.174277e+00 -5.106760e-02 -5.548666e-01 3.423002e-01 -8.656297e-04 -5.472298e-02
198            1.550335e+00 -6.991711e-02 -6.293100e-01 1.206596e+00 1.590974e-02 -5.713361e-01 3.437387e-01 -8.582685e-02 -5.797393e-02
200            1.566402e+00 -3.821362e-02 -5.771744e-01 1.215338e+00 3.582978e-02 -5.213791e-01 3.510645e-01 -7.404340e-02 -5.579535e-02
